<?xml version="1.0" encoding="UTF-8"?>

<!-- generated on 2025-09-19 20:58:38 by Eclipse SUMO GUI Version 1.24.0
<sumoConfiguration xmlns:xsi="http://www.w3.org/2001/XMLSchema-instance" xsi:noNamespaceSchemaLocation="http://sumo.dlr.de/xsd/sumoConfiguration.xsd">

    <input>
        <net-file value="bhubaneswar.net.xml"/>
        <route-files value="bhubaneswar.rou.xml"/>
        <additional-files value="bhubaneswar.add.xml"/>
    </input>

    <output>
        <tripinfo-output value="tripinfo_agent.xml"/>
    </output>

    <time>
        <begin value="0"/>
        <end value="3600"/>
    </time>

    <traci_server>
        <remote-port value="65459"/>
    </traci_server>

    <gui_only>
        <quit-on-end value="true"/>
    </gui_only>

</sumoConfiguration>
-->

<tripinfos xmlns:xsi="http://www.w3.org/2001/XMLSchema-instance" xsi:noNamespaceSchemaLocation="http://sumo.dlr.de/xsd/tripinfo_file.xsd">
    <tripinfo id="flow_sn_sedan.0" depart="3.00" departLane="S_to_C_0" departPos="5.10" departSpeed="0.00" departDelay="0.00" arrival="76.00" arrivalLane="C_to_N_0" arrivalPos="489.60" arrivalSpeed="14.63" duration="73.00" routeLength="994.90" waitingTime="0.00" waitingCount="0" stopTime="0.00" timeLoss="6.40" rerouteNo="0" devices="tripinfo_flow_sn_sedan.0" vType="car_sedan" speedFactor="1.08" vaporized=""/>
    <tripinfo id="flow_we_sedan.0" depart="0.00" departLane="W_to_C_0" departPos="5.10" departSpeed="0.00" departDelay="0.00" arrival="98.00" arrivalLane="C_to_E_0" arrivalPos="489.60" arrivalSpeed="14.57" duration="98.00" routeLength="994.90" waitingTime="18.00" waitingCount="1" stopTime="0.00" timeLoss="29.51" rerouteNo="0" devices="tripinfo_flow_we_sedan.0" vType="car_sedan" speedFactor="1.06" vaporized=""/>
    <tripinfo id="flow_we_hatchback.0" depart="6.00" departLane="W_to_C_0" departPos="4.60" departSpeed="0.00" departDelay="2.00" arrival="99.00" arrivalLane="C_to_E_1" arrivalPos="489.60" arrivalSpeed="13.31" duration="93.00" routeLength="995.40" waitingTime="10.00" waitingCount="1" stopTime="0.00" timeLoss="23.04" rerouteNo="0" devices="tripinfo_flow_we_hatchback.0" vType="car_hatchback" speedFactor="1.03" vaporized=""/>
    <tripinfo id="flow_we_truck.0" depart="19.00" departLane="W_to_C_0" departPos="12.10" departSpeed="0.00" departDelay="0.00" arrival="101.00" arrivalLane="C_to_E_0" arrivalPos="489.60" arrivalSpeed="14.12" duration="82.00" routeLength="987.90" waitingTime="0.00" waitingCount="0" stopTime="0.00" timeLoss="12.45" rerouteNo="0" devices="tripinfo_flow_we_truck.0" vType="truck" speedFactor="1.03" vaporized=""/>
    <tripinfo id="flow_we_sedan.1" depart="3.00" departLane="W_to_C_0" departPos="5.10" departSpeed="0.00" departDelay="2.00" arrival="105.00" arrivalLane="C_to_E_1" arrivalPos="489.60" arrivalSpeed="11.82" duration="102.00" routeLength="994.90" waitingTime="11.00" waitingCount="2" stopTime="0.00" timeLoss="25.24" rerouteNo="0" devices="tripinfo_flow_we_sedan.1" vType="car_sedan" speedFactor="0.94" vaporized=""/>
    <tripinfo id="flow_we_hatchback.1" depart="25.00" departLane="W_to_C_0" departPos="4.60" departSpeed="0.00" departDelay="0.00" arrival="106.00" arrivalLane="C_to_E_0" arrivalPos="489.60" arrivalSpeed="13.65" duration="81.00" routeLength="995.40" waitingTime="0.00" waitingCount="0" stopTime="0.00" timeLoss="7.84" rerouteNo="0" devices="tripinfo_flow_we_hatchback.1" vType="car_hatchback" speedFactor="0.99" vaporized=""/>
    <tripinfo id="flow_we_hatchback.2" depart="30.00" departLane="W_to_C_0" departPos="4.60" departSpeed="0.00" departDelay="0.00" arrival="107.00" arrivalLane="C_to_E_1" arrivalPos="489.60" arrivalSpeed="15.27" duration="77.00" routeLength="995.40" waitingTime="0.00" waitingCount="0" stopTime="0.00" timeLoss="14.35" rerouteNo="0" devices="tripinfo_flow_we_hatchback.2" vType="car_hatchback" speedFactor="1.16" vaporized=""/>
    <tripinfo id="flow_we_sedan.2" depart="33.00" departLane="W_to_C_0" departPos="5.10" departSpeed="0.00" departDelay="2.00" arrival="110.00" arrivalLane="C_to_E_0" arrivalPos="489.60" arrivalSpeed="13.17" duration="77.00" routeLength="994.90" waitingTime="0.00" waitingCount="0" stopTime="0.00" timeLoss="6.60" rerouteNo="0" devices="tripinfo_flow_we_sedan.2" vType="car_sedan" speedFactor="1.02" vaporized=""/>
    <tripinfo id="flow_we_sedan.3" depart="36.00" departLane="W_to_C_0" departPos="5.10" departSpeed="0.00" departDelay="2.00" arrival="117.00" arrivalLane="C_to_E_0" arrivalPos="489.60" arrivalSpeed="13.11" duration="81.00" routeLength="994.90" waitingTime="0.00" waitingCount="0" stopTime="0.00" timeLoss="6.93" rerouteNo="0" devices="tripinfo_flow_we_sedan.3" vType="car_sedan" speedFactor="0.97" vaporized=""/>
    <tripinfo id="flow_we_sedan.4" depart="49.00" departLane="W_to_C_0" departPos="5.10" departSpeed="0.00" departDelay="0.00" arrival="117.00" arrivalLane="C_to_E_1" arrivalPos="489.60" arrivalSpeed="14.98" duration="68.00" routeLength="994.90" waitingTime="0.00" waitingCount="0" stopTime="0.00" timeLoss="6.61" rerouteNo="0" devices="tripinfo_flow_we_sedan.4" vType="car_sedan" speedFactor="1.17" vaporized=""/>
    <tripinfo id="flow_we_sedan.5" depart="52.00" departLane="W_to_C_0" departPos="5.10" departSpeed="0.00" departDelay="2.00" arrival="131.00" arrivalLane="C_to_E_0" arrivalPos="489.60" arrivalSpeed="13.29" duration="79.00" routeLength="994.90" waitingTime="0.00" waitingCount="0" stopTime="0.00" timeLoss="6.24" rerouteNo="0" devices="tripinfo_flow_we_sedan.5" vType="car_sedan" speedFactor="0.99" vaporized=""/>
    <tripinfo id="flow_ns_sedan.0" depart="2.00" departLane="N_to_C_0" departPos="5.10" departSpeed="0.00" departDelay="0.00" arrival="140.00" arrivalLane="C_to_S_0" arrivalPos="489.60" arrivalSpeed="12.76" duration="138.00" routeLength="994.90" waitingTime="54.00" waitingCount="1" stopTime="0.00" timeLoss="66.28" rerouteNo="0" devices="tripinfo_flow_ns_sedan.0" vType="car_sedan" speedFactor="1.01" vaporized=""/>
    <tripinfo id="flow_ns_hatchback.1" depart="19.00" departLane="N_to_C_0" departPos="4.60" departSpeed="0.00" departDelay="0.00" arrival="140.00" arrivalLane="C_to_S_1" arrivalPos="489.60" arrivalSpeed="14.72" duration="121.00" routeLength="995.40" waitingTime="41.00" waitingCount="1" stopTime="0.00" timeLoss="54.91" rerouteNo="0" devices="tripinfo_flow_ns_hatchback.1" vType="car_hatchback" speedFactor="1.09" vaporized=""/>
    <tripinfo id="flow_ns_sedan.3" depart="23.00" departLane="N_to_C_0" departPos="5.10" departSpeed="0.00" departDelay="0.00" arrival="142.00" arrivalLane="C_to_S_1" arrivalPos="489.60" arrivalSpeed="14.91" duration="119.00" routeLength="994.90" waitingTime="40.00" waitingCount="1" stopTime="0.00" timeLoss="54.53" rerouteNo="0" devices="tripinfo_flow_ns_sedan.3" vType="car_sedan" speedFactor="1.12" vaporized=""/>
    <tripinfo id="flow_ns_sedan.2" depart="9.00" departLane="N_to_C_0" departPos="5.10" departSpeed="0.00" departDelay="0.00" arrival="145.00" arrivalLane="C_to_S_0" arrivalPos="489.60" arrivalSpeed="11.79" duration="136.00" routeLength="994.90" waitingTime="42.00" waitingCount="1" stopTime="0.00" timeLoss="54.26" rerouteNo="0" devices="tripinfo_flow_ns_sedan.2" vType="car_sedan" speedFactor="0.89" vaporized=""/>
    <tripinfo id="flow_ns_sedan.1" depart="6.00" departLane="N_to_C_0" departPos="5.10" departSpeed="0.00" departDelay="0.00" arrival="149.00" arrivalLane="C_to_S_0" arrivalPos="489.60" arrivalSpeed="10.28" duration="143.00" routeLength="994.90" waitingTime="46.00" waitingCount="1" stopTime="0.00" timeLoss="56.77" rerouteNo="0" devices="tripinfo_flow_ns_sedan.1" vType="car_sedan" speedFactor="0.83" vaporized=""/>
    <tripinfo id="flow_ns_sedan.4" depart="30.00" departLane="N_to_C_0" departPos="5.10" departSpeed="0.00" departDelay="0.00" arrival="149.00" arrivalLane="C_to_S_1" arrivalPos="489.60" arrivalSpeed="12.45" duration="119.00" routeLength="994.90" waitingTime="27.00" waitingCount="1" stopTime="0.00" timeLoss="41.57" rerouteNo="0" devices="tripinfo_flow_ns_sedan.4" vType="car_sedan" speedFactor="0.94" vaporized=""/>
    <tripinfo id="flow_ns_sedan.6" depart="42.00" departLane="N_to_C_0" departPos="5.10" departSpeed="0.00" departDelay="0.00" arrival="150.00" arrivalLane="C_to_S_1" arrivalPos="489.60" arrivalSpeed="14.01" duration="108.00" routeLength="994.90" waitingTime="25.00" waitingCount="1" stopTime="0.00" timeLoss="44.43" rerouteNo="0" devices="tripinfo_flow_ns_sedan.6" vType="car_sedan" speedFactor="1.13" vaporized=""/>
    <tripinfo id="flow_ns_hatchback.0" depart="15.00" departLane="N_to_C_0" departPos="4.60" departSpeed="0.00" departDelay="0.00" arrival="151.00" arrivalLane="C_to_S_0" arrivalPos="489.60" arrivalSpeed="12.77" duration="136.00" routeLength="995.40" waitingTime="41.00" waitingCount="1" stopTime="0.00" timeLoss="59.12" rerouteNo="0" devices="tripinfo_flow_ns_hatchback.0" vType="car_hatchback" speedFactor="0.94" vaporized=""/>
    <tripinfo id="flow_ns_hatchback.3" depart="45.00" departLane="N_to_C_0" departPos="4.60" departSpeed="0.00" departDelay="0.00" arrival="152.00" arrivalLane="C_to_S_1" arrivalPos="489.60" arrivalSpeed="15.09" duration="107.00" routeLength="995.40" waitingTime="23.00" waitingCount="1" stopTime="0.00" timeLoss="45.63" rerouteNo="0" devices="tripinfo_flow_ns_hatchback.3" vType="car_hatchback" speedFactor="1.18" vaporized=""/>
    <tripinfo id="flow_ns_hatchback.2" depart="26.00" departLane="N_to_C_0" departPos="4.60" departSpeed="0.00" departDelay="0.00" arrival="153.00" arrivalLane="C_to_S_0" arrivalPos="489.60" arrivalSpeed="11.46" duration="127.00" routeLength="995.40" waitingTime="30.00" waitingCount="1" stopTime="0.00" timeLoss="44.96" rerouteNo="0" devices="tripinfo_flow_ns_hatchback.2" vType="car_hatchback" speedFactor="0.88" vaporized=""/>
    <tripinfo id="flow_ns_hatchback.6" depart="62.00" departLane="N_to_C_0" departPos="4.60" departSpeed="0.00" departDelay="2.00" arrival="153.00" arrivalLane="C_to_S_1" arrivalPos="489.60" arrivalSpeed="14.32" duration="91.00" routeLength="995.40" waitingTime="6.00" waitingCount="1" stopTime="0.00" timeLoss="25.97" rerouteNo="0" devices="tripinfo_flow_ns_hatchback.6" vType="car_hatchback" speedFactor="1.10" vaporized=""/>
    <tripinfo id="flow_ns_sedan.5" depart="35.00" departLane="N_to_C_0" departPos="5.10" departSpeed="0.00" departDelay="0.00" arrival="155.00" arrivalLane="C_to_S_0" arrivalPos="489.60" arrivalSpeed="11.33" duration="120.00" routeLength="994.90" waitingTime="22.00" waitingCount="1" stopTime="0.00" timeLoss="38.85" rerouteNo="0" devices="tripinfo_flow_ns_sedan.5" vType="car_sedan" speedFactor="0.89" vaporized=""/>
    <tripinfo id="flow_ns_sedan.8" depart="77.00" departLane="N_to_C_0" departPos="5.10" departSpeed="0.00" departDelay="2.00" arrival="155.00" arrivalLane="C_to_S_1" arrivalPos="489.60" arrivalSpeed="14.82" duration="78.00" routeLength="994.90" waitingTime="0.00" waitingCount="0" stopTime="0.00" timeLoss="11.80" rerouteNo="0" devices="tripinfo_flow_ns_sedan.8" vType="car_sedan" speedFactor="1.09" vaporized=""/>
    <tripinfo id="flow_ns_hatchback.4" depart="48.00" departLane="N_to_C_0" departPos="4.60" departSpeed="0.00" departDelay="2.00" arrival="156.00" arrivalLane="C_to_S_0" arrivalPos="489.60" arrivalSpeed="15.16" duration="108.00" routeLength="995.40" waitingTime="20.00" waitingCount="1" stopTime="0.00" timeLoss="45.82" rerouteNo="0" devices="tripinfo_flow_ns_hatchback.4" vType="car_hatchback" speedFactor="1.15" vaporized=""/>
    <tripinfo id="flow_ns_hatchback.7" depart="74.00" departLane="N_to_C_0" departPos="4.60" departSpeed="0.00" departDelay="0.00" arrival="157.00" arrivalLane="C_to_S_1" arrivalPos="489.60" arrivalSpeed="13.13" duration="83.00" routeLength="995.40" waitingTime="0.00" waitingCount="0" stopTime="0.00" timeLoss="13.59" rerouteNo="0" devices="tripinfo_flow_ns_hatchback.7" vType="car_hatchback" speedFactor="1.04" vaporized=""/>
    <tripinfo id="flow_ns_hatchback.5" depart="59.00" departLane="N_to_C_0" departPos="4.60" departSpeed="0.00" departDelay="0.00" arrival="158.00" arrivalLane="C_to_S_0" arrivalPos="489.60" arrivalSpeed="15.88" duration="99.00" routeLength="995.40" waitingTime="10.00" waitingCount="1" stopTime="0.00" timeLoss="37.71" rerouteNo="0" devices="tripinfo_flow_ns_hatchback.5" vType="car_hatchback" speedFactor="1.18" vaporized=""/>
    <tripinfo id="flow_ns_sedan.10" depart="89.00" departLane="N_to_C_0" departPos="5.10" departSpeed="0.00" departDelay="0.00" arrival="159.00" arrivalLane="C_to_S_1" arrivalPos="489.60" arrivalSpeed="14.94" duration="70.00" routeLength="994.90" waitingTime="0.00" waitingCount="0" stopTime="0.00" timeLoss="7.99" rerouteNo="0" devices="tripinfo_flow_ns_sedan.10" vType="car_sedan" speedFactor="1.17" vaporized=""/>
    <tripinfo id="flow_ns_sedan.7" depart="71.00" departLane="N_to_C_0" departPos="5.10" departSpeed="0.00" departDelay="0.00" arrival="160.00" arrivalLane="C_to_S_0" arrivalPos="489.60" arrivalSpeed="14.04" duration="89.00" routeLength="994.90" waitingTime="0.00" waitingCount="0" stopTime="0.00" timeLoss="22.58" rerouteNo="0" devices="tripinfo_flow_ns_sedan.7" vType="car_sedan" speedFactor="1.09" vaporized=""/>
    <tripinfo id="flow_ns_hatchback.8" depart="92.00" departLane="N_to_C_0" departPos="4.60" departSpeed="0.00" departDelay="0.00" arrival="171.00" arrivalLane="C_to_S_0" arrivalPos="489.60" arrivalSpeed="13.66" duration="79.00" routeLength="995.40" waitingTime="0.00" waitingCount="0" stopTime="0.00" timeLoss="6.71" rerouteNo="0" devices="tripinfo_flow_ns_hatchback.8" vType="car_hatchback" speedFactor="1.00" vaporized=""/>
    <tripinfo id="flow_ns_sedan.9" depart="84.00" departLane="N_to_C_0" departPos="5.10" departSpeed="0.00" departDelay="0.00" arrival="173.00" arrivalLane="C_to_S_0" arrivalPos="489.60" arrivalSpeed="11.52" duration="89.00" routeLength="994.90" waitingTime="0.00" waitingCount="0" stopTime="0.00" timeLoss="6.88" rerouteNo="0" devices="tripinfo_flow_ns_sedan.9" vType="car_sedan" speedFactor="0.88" vaporized=""/>
    <tripinfo id="flow_ew_hatchback.0" depart="7.00" departLane="E_to_C_0" departPos="4.60" departSpeed="0.00" departDelay="0.00" arrival="193.00" arrivalLane="C_to_W_0" arrivalPos="489.60" arrivalSpeed="13.90" duration="186.00" routeLength="995.40" waitingTime="106.00" waitingCount="1" stopTime="0.00" timeLoss="117.04" rerouteNo="0" devices="tripinfo_flow_ew_hatchback.0" vType="car_hatchback" speedFactor="1.05" vaporized=""/>
    <tripinfo id="flow_ew_hatchback.2" depart="22.00" departLane="E_to_C_0" departPos="4.60" departSpeed="0.00" departDelay="0.00" arrival="193.00" arrivalLane="C_to_W_1" arrivalPos="489.60" arrivalSpeed="13.59" duration="171.00" routeLength="995.40" waitingTime="89.00" waitingCount="1" stopTime="0.00" timeLoss="102.19" rerouteNo="0" devices="tripinfo_flow_ew_hatchback.2" vType="car_hatchback" speedFactor="1.05" vaporized=""/>
    <tripinfo id="flow_ew_hatchback.3" depart="25.00" departLane="E_to_C_0" departPos="4.60" departSpeed="0.00" departDelay="0.00" arrival="200.00" arrivalLane="C_to_W_0" arrivalPos="489.60" arrivalSpeed="12.57" duration="175.00" routeLength="995.40" waitingTime="85.00" waitingCount="1" stopTime="0.00" timeLoss="97.49" rerouteNo="0" devices="tripinfo_flow_ew_hatchback.3" vType="car_hatchback" speedFactor="0.93" vaporized=""/>
    <tripinfo id="flow_ew_hatchback.7" depart="43.00" departLane="E_to_C_0" departPos="4.60" departSpeed="0.00" departDelay="2.00" arrival="202.00" arrivalLane="C_to_W_1" arrivalPos="489.60" arrivalSpeed="12.00" duration="159.00" routeLength="995.40" waitingTime="69.00" waitingCount="1" stopTime="0.00" timeLoss="82.58" rerouteNo="0" devices="tripinfo_flow_ew_hatchback.7" vType="car_hatchback" speedFactor="0.95" vaporized=""/>
    <tripinfo id="flow_ew_hatchback.1" depart="17.00" departLane="E_to_C_0" departPos="4.60" departSpeed="0.00" departDelay="0.00" arrival="203.00" arrivalLane="C_to_W_0" arrivalPos="489.60" arrivalSpeed="11.44" duration="186.00" routeLength="995.40" waitingTime="89.00" waitingCount="1" stopTime="0.00" timeLoss="101.98" rerouteNo="0" devices="tripinfo_flow_ew_hatchback.1" vType="car_hatchback" speedFactor="0.86" vaporized=""/>
    <tripinfo id="flow_ew_hatchback.8" depart="46.00" departLane="E_to_C_0" departPos="4.60" departSpeed="0.00" departDelay="0.00" arrival="204.00" arrivalLane="C_to_W_1" arrivalPos="489.60" arrivalSpeed="13.90" duration="158.00" routeLength="995.40" waitingTime="69.00" waitingCount="1" stopTime="0.00" timeLoss="86.45" rerouteNo="0" devices="tripinfo_flow_ew_hatchback.8" vType="car_hatchback" speedFactor="1.01" vaporized=""/>
    <tripinfo id="flow_ew_hatchback.4" depart="33.00" departLane="E_to_C_0" departPos="4.60" departSpeed="0.00" departDelay="0.00" arrival="205.00" arrivalLane="C_to_W_0" arrivalPos="489.60" arrivalSpeed="13.49" duration="172.00" routeLength="995.40" waitingTime="79.00" waitingCount="1" stopTime="0.00" timeLoss="100.25" rerouteNo="0" devices="tripinfo_flow_ew_hatchback.4" vType="car_hatchback" speedFactor="1.01" vaporized=""/>
    <tripinfo id="flow_ew_hatchback.9" depart="52.00" departLane="E_to_C_0" departPos="4.60" departSpeed="0.00" departDelay="0.00" arrival="206.00" arrivalLane="C_to_W_1" arrivalPos="489.60" arrivalSpeed="13.01" duration="154.00" routeLength="995.40" waitingTime="64.00" waitingCount="1" stopTime="0.00" timeLoss="83.25" rerouteNo="0" devices="tripinfo_flow_ew_hatchback.9" vType="car_hatchback" speedFactor="1.02" vaporized=""/>
    <tripinfo id="flow_ew_hatchback.5" depart="37.00" departLane="E_to_C_0" departPos="4.60" departSpeed="0.00" departDelay="0.00" arrival="212.00" arrivalLane="C_to_W_0" arrivalPos="489.60" arrivalSpeed="10.75" duration="175.00" routeLength="995.40" waitingTime="72.00" waitingCount="1" stopTime="0.00" timeLoss="88.13" rerouteNo="0" devices="tripinfo_flow_ew_hatchback.5" vType="car_hatchback" speedFactor="0.83" vaporized=""/>
    <tripinfo id="flow_ew_hatchback.11" depart="81.00" departLane="E_to_C_0" departPos="4.60" departSpeed="0.00" departDelay="0.00" arrival="213.00" arrivalLane="C_to_W_1" arrivalPos="489.60" arrivalSpeed="11.81" duration="132.00" routeLength="995.40" waitingTime="33.00" waitingCount="1" stopTime="0.00" timeLoss="51.52" rerouteNo="0" devices="tripinfo_flow_ew_hatchback.11" vType="car_hatchback" speedFactor="0.90" vaporized=""/>
    <tripinfo id="flow_ew_hatchback.6" depart="40.00" departLane="E_to_C_0" departPos="4.60" departSpeed="0.00" departDelay="2.00" arrival="214.00" arrivalLane="C_to_W_0" arrivalPos="489.60" arrivalSpeed="11.31" duration="174.00" routeLength="995.40" waitingTime="71.00" waitingCount="1" stopTime="0.00" timeLoss="91.64" rerouteNo="0" devices="tripinfo_flow_ew_hatchback.6" vType="car_hatchback" speedFactor="0.87" vaporized=""/>
    <tripinfo id="flow_ew_hatchback.14" depart="101.00" departLane="E_to_C_0" departPos="4.60" departSpeed="0.00" departDelay="0.00" arrival="214.00" arrivalLane="C_to_W_1" arrivalPos="489.60" arrivalSpeed="12.77" duration="113.00" routeLength="995.40" waitingTime="18.00" waitingCount="1" stopTime="0.00" timeLoss="38.84" rerouteNo="0" devices="tripinfo_flow_ew_hatchback.14" vType="car_hatchback" speedFactor="0.97" vaporized=""/>
    <tripinfo id="flow_ew_hatchback.10" depart="61.00" departLane="E_to_C_0" departPos="4.60" departSpeed="0.00" departDelay="0.00" arrival="216.00" arrivalLane="C_to_W_0" arrivalPos="489.60" arrivalSpeed="13.15" duration="155.00" routeLength="995.40" waitingTime="58.00" waitingCount="1" stopTime="0.00" timeLoss="84.84" rerouteNo="0" devices="tripinfo_flow_ew_hatchback.10" vType="car_hatchback" speedFactor="1.03" vaporized=""/>
    <tripinfo id="flow_ew_hatchback.15" depart="107.00" departLane="E_to_C_0" departPos="4.60" departSpeed="0.00" departDelay="0.00" arrival="216.00" arrivalLane="C_to_W_1" arrivalPos="489.60" arrivalSpeed="13.33" duration="109.00" routeLength="995.40" waitingTime="14.00" waitingCount="1" stopTime="0.00" timeLoss="35.84" rerouteNo="0" devices="tripinfo_flow_ew_hatchback.15" vType="car_hatchback" speedFactor="0.99" vaporized=""/>
    <tripinfo id="flow_ew_hatchback.12" depart="89.00" departLane="E_to_C_0" departPos="4.60" departSpeed="0.00" departDelay="0.00" arrival="218.00" arrivalLane="C_to_W_0" arrivalPos="489.60" arrivalSpeed="14.00" duration="129.00" routeLength="995.40" waitingTime="33.00" waitingCount="1" stopTime="0.00" timeLoss="57.59" rerouteNo="0" devices="tripinfo_flow_ew_hatchback.12" vType="car_hatchback" speedFactor="1.02" vaporized=""/>
    <tripinfo id="flow_ew_hatchback.17" depart="121.00" departLane="E_to_C_0" departPos="4.60" departSpeed="0.00" departDelay="1.00" arrival="218.00" arrivalLane="C_to_W_1" arrivalPos="489.60" arrivalSpeed="13.80" duration="97.00" routeLength="995.40" waitingTime="3.00" waitingCount="1" stopTime="0.00" timeLoss="26.04" rerouteNo="0" devices="tripinfo_flow_ew_hatchback.17" vType="car_hatchback" speedFactor="1.02" vaporized=""/>
    <tripinfo id="flow_ew_hatchback.19" depart="134.00" departLane="E_to_C_0" departPos="4.60" departSpeed="0.00" departDelay="0.00" arrival="219.00" arrivalLane="C_to_W_1" arrivalPos="489.60" arrivalSpeed="14.01" duration="85.00" routeLength="995.40" waitingTime="0.00" waitingCount="0" stopTime="0.00" timeLoss="18.83" rerouteNo="0" devices="tripinfo_flow_ew_hatchback.19" vType="car_hatchback" speedFactor="1.09" vaporized=""/>
    <tripinfo id="flow_ew_hatchback.13" depart="98.00" departLane="E_to_C_0" departPos="4.60" departSpeed="0.00" departDelay="0.00" arrival="220.00" arrivalLane="C_to_W_0" arrivalPos="489.60" arrivalSpeed="12.37" duration="122.00" routeLength="995.40" waitingTime="21.00" waitingCount="1" stopTime="0.00" timeLoss="41.36" rerouteNo="0" devices="tripinfo_flow_ew_hatchback.13" vType="car_hatchback" speedFactor="0.90" vaporized=""/>
    <tripinfo id="flow_ew_hatchback.16" depart="118.00" departLane="E_to_C_0" departPos="4.60" departSpeed="0.00" departDelay="0.00" arrival="221.00" arrivalLane="C_to_W_0" arrivalPos="489.60" arrivalSpeed="12.98" duration="103.00" routeLength="995.40" waitingTime="6.00" waitingCount="1" stopTime="0.00" timeLoss="33.94" rerouteNo="0" devices="tripinfo_flow_ew_hatchback.16" vType="car_hatchback" speedFactor="1.04" vaporized=""/>
    <tripinfo id="flow_ew_hatchback.20" depart="137.00" departLane="E_to_C_0" departPos="4.60" departSpeed="0.00" departDelay="2.00" arrival="221.00" arrivalLane="C_to_W_1" arrivalPos="489.60" arrivalSpeed="13.18" duration="84.00" routeLength="995.40" waitingTime="0.00" waitingCount="0" stopTime="0.00" timeLoss="14.31" rerouteNo="0" devices="tripinfo_flow_ew_hatchback.20" vType="car_hatchback" speedFactor="1.03" vaporized=""/>
    <tripinfo id="flow_ew_hatchback.18" depart="124.00" departLane="E_to_C_0" departPos="4.60" departSpeed="0.00" departDelay="3.00" arrival="223.00" arrivalLane="C_to_W_0" arrivalPos="489.60" arrivalSpeed="12.16" duration="99.00" routeLength="995.40" waitingTime="0.00" waitingCount="0" stopTime="0.00" timeLoss="22.46" rerouteNo="0" devices="tripinfo_flow_ew_hatchback.18" vType="car_hatchback" speedFactor="0.94" vaporized=""/>
    <tripinfo id="flow_ew_hatchback.21" depart="141.00" departLane="E_to_C_0" departPos="4.60" departSpeed="0.00" departDelay="0.00" arrival="223.00" arrivalLane="C_to_W_1" arrivalPos="489.60" arrivalSpeed="12.82" duration="82.00" routeLength="995.40" waitingTime="0.00" waitingCount="0" stopTime="0.00" timeLoss="9.50" rerouteNo="0" devices="tripinfo_flow_ew_hatchback.21" vType="car_hatchback" speedFactor="1.00" vaporized=""/>
    <tripinfo id="flow_ew_hatchback.22" depart="144.00" departLane="E_to_C_0" departPos="4.60" departSpeed="0.00" departDelay="2.00" arrival="224.00" arrivalLane="C_to_W_1" arrivalPos="489.60" arrivalSpeed="13.76" duration="80.00" routeLength="995.40" waitingTime="0.00" waitingCount="0" stopTime="0.00" timeLoss="9.45" rerouteNo="0" devices="tripinfo_flow_ew_hatchback.22" vType="car_hatchback" speedFactor="1.02" vaporized=""/>
    <tripinfo id="flow_ew_hatchback.23" depart="150.00" departLane="E_to_C_0" departPos="4.60" departSpeed="0.00" departDelay="0.00" arrival="230.00" arrivalLane="C_to_W_0" arrivalPos="489.60" arrivalSpeed="13.55" duration="80.00" routeLength="995.40" waitingTime="0.00" waitingCount="0" stopTime="0.00" timeLoss="6.55" rerouteNo="0" devices="tripinfo_flow_ew_hatchback.23" vType="car_hatchback" speedFactor="0.98" vaporized=""/>
    <tripinfo id="flow_ew_hatchback.24" depart="167.00" departLane="E_to_C_0" departPos="4.60" departSpeed="0.00" departDelay="0.00" arrival="238.00" arrivalLane="C_to_W_0" arrivalPos="489.60" arrivalSpeed="14.82" duration="71.00" routeLength="995.40" waitingTime="0.00" waitingCount="0" stopTime="0.00" timeLoss="6.81" rerouteNo="0" devices="tripinfo_flow_ew_hatchback.24" vType="car_hatchback" speedFactor="1.12" vaporized=""/>
    <tripinfo id="flow_ew_hatchback.25" depart="170.00" departLane="E_to_C_0" departPos="4.60" departSpeed="0.00" departDelay="0.00" arrival="243.00" arrivalLane="C_to_W_0" arrivalPos="489.60" arrivalSpeed="14.19" duration="73.00" routeLength="995.40" waitingTime="0.00" waitingCount="0" stopTime="0.00" timeLoss="6.83" rerouteNo="0" devices="tripinfo_flow_ew_hatchback.25" vType="car_hatchback" speedFactor="1.10" vaporized=""/>
    <tripinfo id="flow_ew_hatchback.26" depart="173.00" departLane="E_to_C_0" departPos="4.60" departSpeed="0.00" departDelay="1.00" arrival="247.00" arrivalLane="C_to_W_0" arrivalPos="489.60" arrivalSpeed="14.39" duration="74.00" routeLength="995.40" waitingTime="0.00" waitingCount="0" stopTime="0.00" timeLoss="5.93" rerouteNo="0" devices="tripinfo_flow_ew_hatchback.26" vType="car_hatchback" speedFactor="1.06" vaporized=""/>
    <tripinfo id="flow_sn_sedan.1" depart="39.00" departLane="S_to_C_0" departPos="5.10" departSpeed="0.00" departDelay="0.00" arrival="264.00" arrivalLane="C_to_N_0" arrivalPos="489.60" arrivalSpeed="11.61" duration="225.00" routeLength="994.90" waitingTime="133.00" waitingCount="1" stopTime="0.00" timeLoss="146.66" rerouteNo="0" devices="tripinfo_flow_sn_sedan.1" vType="car_sedan" speedFactor="0.92" vaporized=""/>
    <tripinfo id="flow_sn_sedan.2" depart="42.00" departLane="S_to_C_0" departPos="5.10" departSpeed="0.00" departDelay="0.00" arrival="265.00" arrivalLane="C_to_N_1" arrivalPos="489.60" arrivalSpeed="12.04" duration="223.00" routeLength="994.90" waitingTime="133.00" waitingCount="1" stopTime="0.00" timeLoss="145.71" rerouteNo="0" devices="tripinfo_flow_sn_sedan.2" vType="car_sedan" speedFactor="0.93" vaporized=""/>
    <tripinfo id="flow_sn_bus.0" depart="27.00" departLane="S_to_C_0" departPos="15.10" departSpeed="0.00" departDelay="0.00" arrival="267.00" arrivalLane="C_to_N_0" arrivalPos="489.60" arrivalSpeed="12.95" duration="240.00" routeLength="984.90" waitingTime="145.00" waitingCount="1" stopTime="0.00" timeLoss="163.96" rerouteNo="0" devices="tripinfo_flow_sn_bus.0" vType="bus" speedFactor="0.94" vaporized=""/>
    <tripinfo id="flow_sn_sedan.3" depart="55.00" departLane="S_to_C_0" departPos="5.10" departSpeed="0.00" departDelay="0.00" arrival="267.00" arrivalLane="C_to_N_1" arrivalPos="489.60" arrivalSpeed="12.54" duration="212.00" routeLength="994.90" waitingTime="122.00" waitingCount="1" stopTime="0.00" timeLoss="137.73" rerouteNo="0" devices="tripinfo_flow_sn_sedan.3" vType="car_sedan" speedFactor="0.97" vaporized=""/>
    <tripinfo id="flow_sn_sedan.4" depart="61.00" departLane="S_to_C_0" departPos="5.10" departSpeed="0.00" departDelay="0.00" arrival="270.00" arrivalLane="C_to_N_0" arrivalPos="489.60" arrivalSpeed="12.24" duration="209.00" routeLength="994.90" waitingTime="113.00" waitingCount="1" stopTime="0.00" timeLoss="129.23" rerouteNo="0" devices="tripinfo_flow_sn_sedan.4" vType="car_sedan" speedFactor="0.90" vaporized=""/>
    <tripinfo id="flow_sn_sedan.8" depart="90.00" departLane="S_to_C_0" departPos="5.10" departSpeed="0.00" departDelay="0.00" arrival="271.00" arrivalLane="C_to_N_1" arrivalPos="489.60" arrivalSpeed="15.21" duration="181.00" routeLength="994.90" waitingTime="95.00" waitingCount="1" stopTime="0.00" timeLoss="115.56" rerouteNo="0" devices="tripinfo_flow_sn_sedan.8" vType="car_sedan" speedFactor="1.10" vaporized=""/>
    <tripinfo id="flow_sn_sedan.5" depart="64.00" departLane="S_to_C_0" departPos="5.10" departSpeed="0.00" departDelay="1.00" arrival="273.00" arrivalLane="C_to_N_0" arrivalPos="489.60" arrivalSpeed="12.20" duration="209.00" routeLength="994.90" waitingTime="114.00" waitingCount="1" stopTime="0.00" timeLoss="133.36" rerouteNo="0" devices="tripinfo_flow_sn_sedan.5" vType="car_sedan" speedFactor="0.96" vaporized=""/>
    <tripinfo id="flow_sn_sedan.9" depart="99.00" departLane="S_to_C_0" departPos="5.10" departSpeed="0.00" departDelay="0.00" arrival="273.00" arrivalLane="C_to_N_1" arrivalPos="489.60" arrivalSpeed="15.41" duration="174.00" routeLength="994.90" waitingTime="88.00" waitingCount="1" stopTime="0.00" timeLoss="110.95" rerouteNo="0" devices="tripinfo_flow_sn_sedan.9" vType="car_sedan" speedFactor="1.14" vaporized=""/>
    <tripinfo id="flow_sn_sedan.6" depart="84.00" departLane="S_to_C_0" departPos="5.10" departSpeed="0.00" departDelay="0.00" arrival="277.00" arrivalLane="C_to_N_0" arrivalPos="489.60" arrivalSpeed="11.65" duration="193.00" routeLength="994.90" waitingTime="89.00" waitingCount="1" stopTime="0.00" timeLoss="108.56" rerouteNo="0" devices="tripinfo_flow_sn_sedan.6" vType="car_sedan" speedFactor="0.85" vaporized=""/>
    <tripinfo id="flow_sn_sedan.10" depart="121.00" departLane="S_to_C_0" departPos="5.10" departSpeed="0.00" departDelay="0.00" arrival="278.00" arrivalLane="C_to_N_1" arrivalPos="489.60" arrivalSpeed="13.25" duration="157.00" routeLength="994.90" waitingTime="64.00" waitingCount="1" stopTime="0.00" timeLoss="82.69" rerouteNo="0" devices="tripinfo_flow_sn_sedan.10" vType="car_sedan" speedFactor="0.97" vaporized=""/>