<?xml version="1.0" encoding="UTF-8"?>

<!-- generated on 2025-09-20 00:06:44 by Eclipse SUMO GUI Version 1.24.0
<sumoConfiguration xmlns:xsi="http://www.w3.org/2001/XMLSchema-instance" xsi:noNamespaceSchemaLocation="http://sumo.dlr.de/xsd/sumoConfiguration.xsd">

    <input>
        <net-file value="bhubaneswar.net.xml"/>
        <route-files value="bhubaneswar.rou.xml"/>
        <additional-files value="bhubaneswar.add.xml"/>
    </input>

    <output>
        <tripinfo-output value="tripinfo_agent.xml"/>
    </output>

    <time>
        <begin value="0"/>
        <end value="3600"/>
    </time>

    <traci_server>
        <remote-port value="50957"/>
    </traci_server>

    <gui_only>
        <quit-on-end value="true"/>
    </gui_only>

</sumoConfiguration>
-->

<tripinfos xmlns:xsi="http://www.w3.org/2001/XMLSchema-instance" xsi:noNamespaceSchemaLocation="http://sumo.dlr.de/xsd/tripinfo_file.xsd">
    <tripinfo id="flow_sn_sedan.0" depart="3.00" departLane="S_to_C_0" departPos="5.10" departSpeed="0.00" departDelay="0.00" arrival="76.00" arrivalLane="C_to_N_0" arrivalPos="489.60" arrivalSpeed="14.63" duration="73.00" routeLength="994.90" waitingTime="0.00" waitingCount="0" stopTime="0.00" timeLoss="6.40" rerouteNo="0" devices="tripinfo_flow_sn_sedan.0" vType="car_sedan" speedFactor="1.08" vaporized=""/>
    <tripinfo id="flow_we_sedan.0" depart="0.00" departLane="W_to_C_0" departPos="5.10" departSpeed="0.00" departDelay="0.00" arrival="86.00" arrivalLane="C_to_E_0" arrivalPos="489.60" arrivalSpeed="13.76" duration="86.00" routeLength="994.90" waitingTime="6.00" waitingCount="1" stopTime="0.00" timeLoss="17.56" rerouteNo="0" devices="tripinfo_flow_we_sedan.0" vType="car_sedan" speedFactor="1.06" vaporized=""/>
    <tripinfo id="flow_we_hatchback.0" depart="6.00" departLane="W_to_C_0" departPos="4.60" departSpeed="0.00" departDelay="2.00" arrival="86.00" arrivalLane="C_to_E_1" arrivalPos="489.60" arrivalSpeed="13.44" duration="80.00" routeLength="995.40" waitingTime="0.00" waitingCount="0" stopTime="0.00" timeLoss="9.69" rerouteNo="0" devices="tripinfo_flow_we_hatchback.0" vType="car_hatchback" speedFactor="1.03" vaporized=""/>
    <tripinfo id="flow_we_sedan.1" depart="3.00" departLane="W_to_C_0" departPos="5.10" departSpeed="0.00" departDelay="2.00" arrival="92.00" arrivalLane="C_to_E_0" arrivalPos="489.60" arrivalSpeed="11.77" duration="89.00" routeLength="994.90" waitingTime="0.00" waitingCount="0" stopTime="0.00" timeLoss="12.11" rerouteNo="0" devices="tripinfo_flow_we_sedan.1" vType="car_sedan" speedFactor="0.94" vaporized=""/>
    <tripinfo id="flow_ns_sedan.0" depart="2.00" departLane="N_to_C_0" departPos="5.10" departSpeed="0.00" departDelay="0.00" arrival="101.00" arrivalLane="C_to_S_0" arrivalPos="489.60" arrivalSpeed="13.38" duration="99.00" routeLength="994.90" waitingTime="15.00" waitingCount="1" stopTime="0.00" timeLoss="27.17" rerouteNo="0" devices="tripinfo_flow_ns_sedan.0" vType="car_sedan" speedFactor="1.01" vaporized=""/>
    <tripinfo id="flow_ns_hatchback.1" depart="19.00" departLane="N_to_C_0" departPos="4.60" departSpeed="0.00" departDelay="0.00" arrival="102.00" arrivalLane="C_to_S_1" arrivalPos="489.60" arrivalSpeed="14.14" duration="83.00" routeLength="995.40" waitingTime="2.00" waitingCount="1" stopTime="0.00" timeLoss="16.89" rerouteNo="0" devices="tripinfo_flow_ns_hatchback.1" vType="car_hatchback" speedFactor="1.09" vaporized=""/>
    <tripinfo id="flow_ns_sedan.3" depart="23.00" departLane="N_to_C_0" departPos="5.10" departSpeed="0.00" departDelay="0.00" arrival="104.00" arrivalLane="C_to_S_1" arrivalPos="489.60" arrivalSpeed="14.99" duration="81.00" routeLength="994.90" waitingTime="1.00" waitingCount="1" stopTime="0.00" timeLoss="16.71" rerouteNo="0" devices="tripinfo_flow_ns_sedan.3" vType="car_sedan" speedFactor="1.12" vaporized=""/>
    <tripinfo id="flow_ns_sedan.2" depart="9.00" departLane="N_to_C_0" departPos="5.10" departSpeed="0.00" departDelay="0.00" arrival="106.00" arrivalLane="C_to_S_0" arrivalPos="489.60" arrivalSpeed="11.64" duration="97.00" routeLength="994.90" waitingTime="3.00" waitingCount="1" stopTime="0.00" timeLoss="15.39" rerouteNo="0" devices="tripinfo_flow_ns_sedan.2" vType="car_sedan" speedFactor="0.89" vaporized=""/>
    <tripinfo id="flow_ns_hatchback.0" depart="15.00" departLane="N_to_C_0" departPos="4.60" departSpeed="0.00" departDelay="0.00" arrival="109.00" arrivalLane="C_to_S_1" arrivalPos="489.60" arrivalSpeed="12.18" duration="94.00" routeLength="995.40" waitingTime="2.00" waitingCount="1" stopTime="0.00" timeLoss="17.38" rerouteNo="0" devices="tripinfo_flow_ns_hatchback.0" vType="car_hatchback" speedFactor="0.94" vaporized=""/>
    <tripinfo id="flow_ns_sedan.1" depart="6.00" departLane="N_to_C_0" departPos="5.10" departSpeed="0.00" departDelay="0.00" arrival="111.00" arrivalLane="C_to_S_0" arrivalPos="489.60" arrivalSpeed="10.48" duration="105.00" routeLength="994.90" waitingTime="7.00" waitingCount="1" stopTime="0.00" timeLoss="18.14" rerouteNo="0" devices="tripinfo_flow_ns_sedan.1" vType="car_sedan" speedFactor="0.83" vaporized=""/>
    <tripinfo id="flow_ns_hatchback.2" depart="26.00" departLane="N_to_C_0" departPos="4.60" departSpeed="0.00" departDelay="0.00" arrival="115.00" arrivalLane="C_to_S_0" arrivalPos="489.60" arrivalSpeed="11.47" duration="89.00" routeLength="995.40" waitingTime="0.00" waitingCount="0" stopTime="0.00" timeLoss="7.26" rerouteNo="0" devices="tripinfo_flow_ns_hatchback.2" vType="car_hatchback" speedFactor="0.88" vaporized=""/>
    <tripinfo id="flow_ns_sedan.4" depart="30.00" departLane="N_to_C_0" departPos="5.10" departSpeed="0.00" departDelay="0.00" arrival="115.00" arrivalLane="C_to_S_1" arrivalPos="489.60" arrivalSpeed="12.14" duration="85.00" routeLength="994.90" waitingTime="0.00" waitingCount="0" stopTime="0.00" timeLoss="7.57" rerouteNo="0" devices="tripinfo_flow_ns_sedan.4" vType="car_sedan" speedFactor="0.94" vaporized=""/>
    <tripinfo id="flow_ns_sedan.6" depart="42.00" departLane="N_to_C_0" departPos="5.10" departSpeed="0.00" departDelay="0.00" arrival="116.00" arrivalLane="C_to_S_1" arrivalPos="489.60" arrivalSpeed="14.14" duration="74.00" routeLength="994.90" waitingTime="0.00" waitingCount="0" stopTime="0.00" timeLoss="10.40" rerouteNo="0" devices="tripinfo_flow_ns_sedan.6" vType="car_sedan" speedFactor="1.13" vaporized=""/>
    <tripinfo id="flow_ns_hatchback.3" depart="45.00" departLane="N_to_C_0" departPos="4.60" departSpeed="0.00" departDelay="0.00" arrival="117.00" arrivalLane="C_to_S_0" arrivalPos="489.60" arrivalSpeed="15.85" duration="72.00" routeLength="995.40" waitingTime="0.00" waitingCount="0" stopTime="0.00" timeLoss="10.51" rerouteNo="0" devices="tripinfo_flow_ns_hatchback.3" vType="car_hatchback" speedFactor="1.18" vaporized=""/>
    <tripinfo id="flow_ns_hatchback.4" depart="48.00" departLane="N_to_C_0" departPos="4.60" departSpeed="0.00" departDelay="2.00" arrival="118.00" arrivalLane="C_to_S_1" arrivalPos="489.60" arrivalSpeed="15.30" duration="70.00" routeLength="995.40" waitingTime="0.00" waitingCount="0" stopTime="0.00" timeLoss="7.28" rerouteNo="0" devices="tripinfo_flow_ns_hatchback.4" vType="car_hatchback" speedFactor="1.15" vaporized=""/>
    <tripinfo id="flow_ns_sedan.5" depart="35.00" departLane="N_to_C_0" departPos="5.10" departSpeed="0.00" departDelay="0.00" arrival="123.00" arrivalLane="C_to_S_0" arrivalPos="489.60" arrivalSpeed="11.67" duration="88.00" routeLength="994.90" waitingTime="0.00" waitingCount="0" stopTime="0.00" timeLoss="6.89" rerouteNo="0" devices="tripinfo_flow_ns_sedan.5" vType="car_sedan" speedFactor="0.89" vaporized=""/>
    <tripinfo id="flow_ns_hatchback.5" depart="59.00" departLane="N_to_C_0" departPos="4.60" departSpeed="0.00" departDelay="0.00" arrival="127.00" arrivalLane="C_to_S_0" arrivalPos="489.60" arrivalSpeed="15.39" duration="68.00" routeLength="995.40" waitingTime="0.00" waitingCount="0" stopTime="0.00" timeLoss="6.68" rerouteNo="0" devices="tripinfo_flow_ns_hatchback.5" vType="car_hatchback" speedFactor="1.18" vaporized=""/>
    <tripinfo id="flow_ns_hatchback.6" depart="62.00" departLane="N_to_C_0" departPos="4.60" departSpeed="0.00" departDelay="2.00" arrival="133.00" arrivalLane="C_to_S_0" arrivalPos="489.60" arrivalSpeed="14.35" duration="71.00" routeLength="995.40" waitingTime="0.00" waitingCount="0" stopTime="0.00" timeLoss="5.89" rerouteNo="0" devices="tripinfo_flow_ns_hatchback.6" vType="car_hatchback" speedFactor="1.10" vaporized=""/>
    <tripinfo id="flow_ns_sedan.7" depart="71.00" departLane="N_to_C_0" departPos="5.10" departSpeed="0.00" departDelay="0.00" arrival="143.00" arrivalLane="C_to_S_0" arrivalPos="489.60" arrivalSpeed="15.05" duration="72.00" routeLength="994.90" waitingTime="0.00" waitingCount="0" stopTime="0.00" timeLoss="5.50" rerouteNo="0" devices="tripinfo_flow_ns_sedan.7" vType="car_sedan" speedFactor="1.09" vaporized=""/>
    <tripinfo id="flow_ew_hatchback.0" depart="7.00" departLane="E_to_C_0" departPos="4.60" departSpeed="0.00" departDelay="0.00" arrival="154.00" arrivalLane="C_to_W_0" arrivalPos="489.60" arrivalSpeed="13.76" duration="147.00" routeLength="995.40" waitingTime="67.00" waitingCount="1" stopTime="0.00" timeLoss="78.34" rerouteNo="0" devices="tripinfo_flow_ew_hatchback.0" vType="car_hatchback" speedFactor="1.05" vaporized=""/>
    <tripinfo id="flow_ew_hatchback.2" depart="22.00" departLane="E_to_C_0" departPos="4.60" departSpeed="0.00" departDelay="0.00" arrival="154.00" arrivalLane="C_to_W_1" arrivalPos="489.60" arrivalSpeed="14.27" duration="132.00" routeLength="995.40" waitingTime="50.00" waitingCount="1" stopTime="0.00" timeLoss="63.32" rerouteNo="0" devices="tripinfo_flow_ew_hatchback.2" vType="car_hatchback" speedFactor="1.05" vaporized=""/>
    <tripinfo id="flow_ew_hatchback.3" depart="25.00" departLane="E_to_C_0" departPos="4.60" departSpeed="0.00" departDelay="0.00" arrival="161.00" arrivalLane="C_to_W_0" arrivalPos="489.60" arrivalSpeed="12.24" duration="136.00" routeLength="995.40" waitingTime="46.00" waitingCount="1" stopTime="0.00" timeLoss="58.32" rerouteNo="0" devices="tripinfo_flow_ew_hatchback.3" vType="car_hatchback" speedFactor="0.93" vaporized=""/>
    <tripinfo id="flow_ew_hatchback.7" depart="43.00" departLane="E_to_C_0" departPos="4.60" departSpeed="0.00" departDelay="2.00" arrival="162.00" arrivalLane="C_to_W_1" arrivalPos="489.60" arrivalSpeed="12.51" duration="119.00" routeLength="995.40" waitingTime="30.00" waitingCount="1" stopTime="0.00" timeLoss="43.33" rerouteNo="0" devices="tripinfo_flow_ew_hatchback.7" vType="car_hatchback" speedFactor="0.95" vaporized=""/>
    <tripinfo id="flow_ew_hatchback.1" depart="17.00" departLane="E_to_C_0" departPos="4.60" departSpeed="0.00" departDelay="0.00" arrival="164.00" arrivalLane="C_to_W_0" arrivalPos="489.60" arrivalSpeed="11.88" duration="147.00" routeLength="995.40" waitingTime="50.00" waitingCount="1" stopTime="0.00" timeLoss="62.85" rerouteNo="0" devices="tripinfo_flow_ew_hatchback.1" vType="car_hatchback" speedFactor="0.86" vaporized=""/>
    <tripinfo id="flow_ew_hatchback.8" depart="46.00" departLane="E_to_C_0" departPos="4.60" departSpeed="0.00" departDelay="0.00" arrival="164.00" arrivalLane="C_to_W_1" arrivalPos="489.60" arrivalSpeed="13.80" duration="118.00" routeLength="995.40" waitingTime="30.00" waitingCount="1" stopTime="0.00" timeLoss="46.15" rerouteNo="0" devices="tripinfo_flow_ew_hatchback.8" vType="car_hatchback" speedFactor="1.01" vaporized=""/>
    <tripinfo id="flow_ew_hatchback.4" depart="33.00" departLane="E_to_C_0" departPos="4.60" departSpeed="0.00" departDelay="0.00" arrival="166.00" arrivalLane="C_to_W_0" arrivalPos="489.60" arrivalSpeed="13.89" duration="133.00" routeLength="995.40" waitingTime="40.00" waitingCount="1" stopTime="0.00" timeLoss="61.18" rerouteNo="0" devices="tripinfo_flow_ew_hatchback.4" vType="car_hatchback" speedFactor="1.01" vaporized=""/>
    <tripinfo id="flow_ew_hatchback.9" depart="52.00" departLane="E_to_C_0" departPos="4.60" departSpeed="0.00" departDelay="0.00" arrival="166.00" arrivalLane="C_to_W_1" arrivalPos="489.60" arrivalSpeed="13.55" duration="114.00" routeLength="995.40" waitingTime="25.00" waitingCount="1" stopTime="0.00" timeLoss="42.91" rerouteNo="0" devices="tripinfo_flow_ew_hatchback.9" vType="car_hatchback" speedFactor="1.02" vaporized=""/>
    <tripinfo id="flow_ew_hatchback.11" depart="81.00" departLane="E_to_C_0" departPos="4.60" departSpeed="0.00" departDelay="0.00" arrival="169.00" arrivalLane="C_to_W_1" arrivalPos="489.60" arrivalSpeed="11.23" duration="88.00" routeLength="995.40" waitingTime="0.00" waitingCount="0" stopTime="0.00" timeLoss="7.96" rerouteNo="0" devices="tripinfo_flow_ew_hatchback.11" vType="car_hatchback" speedFactor="0.90" vaporized=""/>
    <tripinfo id="flow_ew_hatchback.5" depart="37.00" departLane="E_to_C_0" departPos="4.60" departSpeed="0.00" departDelay="0.00" arrival="170.00" arrivalLane="C_to_W_0" arrivalPos="489.60" arrivalSpeed="11.33" duration="133.00" routeLength="995.40" waitingTime="33.00" waitingCount="1" stopTime="0.00" timeLoss="45.79" rerouteNo="0" devices="tripinfo_flow_ew_hatchback.5" vType="car_hatchback" speedFactor="0.83" vaporized=""/>
    <tripinfo id="flow_ew_hatchback.12" depart="89.00" departLane="E_to_C_0" departPos="4.60" departSpeed="0.00" departDelay="0.00" arrival="171.00" arrivalLane="C_to_W_1" arrivalPos="489.60" arrivalSpeed="13.56" duration="82.00" routeLength="995.40" waitingTime="0.00" waitingCount="0" stopTime="0.00" timeLoss="10.65" rerouteNo="0" devices="tripinfo_flow_ew_hatchback.12" vType="car_hatchback" speedFactor="1.02" vaporized=""/>
    <tripinfo id="flow_ew_hatchback.6" depart="40.00" departLane="E_to_C_0" departPos="4.60" departSpeed="0.00" departDelay="2.00" arrival="172.00" arrivalLane="C_to_W_0" arrivalPos="489.60" arrivalSpeed="10.93" duration="132.00" routeLength="995.40" waitingTime="32.00" waitingCount="1" stopTime="0.00" timeLoss="49.27" rerouteNo="0" devices="tripinfo_flow_ew_hatchback.6" vType="car_hatchback" speedFactor="0.87" vaporized=""/>
    <tripinfo id="flow_ew_hatchback.10" depart="61.00" departLane="E_to_C_0" departPos="4.60" departSpeed="0.00" departDelay="0.00" arrival="172.00" arrivalLane="C_to_W_1" arrivalPos="489.60" arrivalSpeed="13.22" duration="111.00" routeLength="995.40" waitingTime="19.00" waitingCount="1" stopTime="0.00" timeLoss="41.29" rerouteNo="0" devices="tripinfo_flow_ew_hatchback.10" vType="car_hatchback" speedFactor="1.03" vaporized=""/>
    <tripinfo id="flow_ew_hatchback.14" depart="101.00" departLane="E_to_C_0" departPos="4.60" departSpeed="0.00" departDelay="0.00" arrival="182.00" arrivalLane="C_to_W_0" arrivalPos="489.60" arrivalSpeed="12.93" duration="81.00" routeLength="995.40" waitingTime="0.00" waitingCount="0" stopTime="0.00" timeLoss="6.86" rerouteNo="0" devices="tripinfo_flow_ew_hatchback.14" vType="car_hatchback" speedFactor="0.97" vaporized=""/>
    <tripinfo id="flow_ew_hatchback.13" depart="98.00" departLane="E_to_C_0" departPos="4.60" departSpeed="0.00" departDelay="0.00" arrival="185.00" arrivalLane="C_to_W_0" arrivalPos="489.60" arrivalSpeed="11.49" duration="87.00" routeLength="995.40" waitingTime="0.00" waitingCount="0" stopTime="0.00" timeLoss="7.17" rerouteNo="0" devices="tripinfo_flow_ew_hatchback.13" vType="car_hatchback" speedFactor="0.90" vaporized=""/>
    <tripinfo id="flow_ew_hatchback.15" depart="107.00" departLane="E_to_C_0" departPos="4.60" departSpeed="0.00" departDelay="0.00" arrival="186.00" arrivalLane="C_to_W_1" arrivalPos="489.60" arrivalSpeed="12.86" duration="79.00" routeLength="995.40" waitingTime="0.00" waitingCount="0" stopTime="0.00" timeLoss="6.16" rerouteNo="0" devices="tripinfo_flow_ew_hatchback.15" vType="car_hatchback" speedFactor="0.99" vaporized=""/>
    <tripinfo id="flow_ew_hatchback.16" depart="118.00" departLane="E_to_C_0" departPos="4.60" departSpeed="0.00" departDelay="0.00" arrival="193.00" arrivalLane="C_to_W_0" arrivalPos="489.60" arrivalSpeed="14.15" duration="75.00" routeLength="995.40" waitingTime="0.00" waitingCount="0" stopTime="0.00" timeLoss="5.91" rerouteNo="0" devices="tripinfo_flow_ew_hatchback.16" vType="car_hatchback" speedFactor="1.04" vaporized=""/>
    <tripinfo id="flow_ew_hatchback.17" depart="121.00" departLane="E_to_C_0" departPos="4.60" departSpeed="0.00" departDelay="1.00" arrival="198.00" arrivalLane="C_to_W_0" arrivalPos="489.60" arrivalSpeed="13.08" duration="77.00" routeLength="995.40" waitingTime="0.00" waitingCount="0" stopTime="0.00" timeLoss="6.20" rerouteNo="0" devices="tripinfo_flow_ew_hatchback.17" vType="car_hatchback" speedFactor="1.02" vaporized=""/>
    <tripinfo id="flow_ew_hatchback.19" depart="134.00" departLane="E_to_C_0" departPos="4.60" departSpeed="0.00" departDelay="0.00" arrival="207.00" arrivalLane="C_to_W_0" arrivalPos="489.60" arrivalSpeed="14.31" duration="73.00" routeLength="995.40" waitingTime="0.00" waitingCount="0" stopTime="0.00" timeLoss="6.43" rerouteNo="0" devices="tripinfo_flow_ew_hatchback.19" vType="car_hatchback" speedFactor="1.09" vaporized=""/>
    <tripinfo id="flow_ew_hatchback.20" depart="137.00" departLane="E_to_C_0" departPos="4.60" departSpeed="0.00" departDelay="2.00" arrival="213.00" arrivalLane="C_to_W_1" arrivalPos="489.60" arrivalSpeed="14.18" duration="76.00" routeLength="995.40" waitingTime="0.00" waitingCount="0" stopTime="0.00" timeLoss="6.38" rerouteNo="0" devices="tripinfo_flow_ew_hatchback.20" vType="car_hatchback" speedFactor="1.03" vaporized=""/>
    <tripinfo id="flow_ew_hatchback.18" depart="124.00" departLane="E_to_C_0" departPos="4.60" departSpeed="0.00" departDelay="3.00" arrival="214.00" arrivalLane="C_to_W_0" arrivalPos="489.60" arrivalSpeed="12.08" duration="90.00" routeLength="995.40" waitingTime="1.00" waitingCount="1" stopTime="0.00" timeLoss="13.77" rerouteNo="0" devices="tripinfo_flow_ew_hatchback.18" vType="car_hatchback" speedFactor="0.94" vaporized=""/>
    <tripinfo id="flow_ew_hatchback.21" depart="141.00" departLane="E_to_C_0" departPos="4.60" departSpeed="0.00" departDelay="0.00" arrival="219.00" arrivalLane="C_to_W_0" arrivalPos="489.60" arrivalSpeed="13.79" duration="78.00" routeLength="995.40" waitingTime="0.00" waitingCount="0" stopTime="0.00" timeLoss="6.20" rerouteNo="0" devices="tripinfo_flow_ew_hatchback.21" vType="car_hatchback" speedFactor="1.00" vaporized=""/>
    <tripinfo id="flow_sn_sedan.1" depart="39.00" departLane="S_to_C_0" departPos="5.10" departSpeed="0.00" departDelay="0.00" arrival="229.00" arrivalLane="C_to_N_0" arrivalPos="489.60" arrivalSpeed="12.35" duration="190.00" routeLength="994.90" waitingTime="99.00" waitingCount="1" stopTime="0.00" timeLoss="111.89" rerouteNo="0" devices="tripinfo_flow_sn_sedan.1" vType="car_sedan" speedFactor="0.92" vaporized=""/>
    <tripinfo id="flow_sn_sedan.2" depart="42.00" departLane="S_to_C_0" departPos="5.10" departSpeed="0.00" departDelay="0.00" arrival="230.00" arrivalLane="C_to_N_1" arrivalPos="489.60" arrivalSpeed="12.35" duration="188.00" routeLength="994.90" waitingTime="99.00" waitingCount="1" stopTime="0.00" timeLoss="110.88" rerouteNo="0" devices="tripinfo_flow_sn_sedan.2" vType="car_sedan" speedFactor="0.93" vaporized=""/>
    <tripinfo id="flow_sn_bus.0" depart="27.00" departLane="S_to_C_0" departPos="15.10" departSpeed="0.00" departDelay="0.00" arrival="232.00" arrivalLane="C_to_N_0" arrivalPos="489.60" arrivalSpeed="12.73" duration="205.00" routeLength="984.90" waitingTime="111.00" waitingCount="1" stopTime="0.00" timeLoss="129.37" rerouteNo="0" devices="tripinfo_flow_sn_bus.0" vType="bus" speedFactor="0.94" vaporized=""/>
    <tripinfo id="flow_sn_sedan.3" depart="55.00" departLane="S_to_C_0" departPos="5.10" departSpeed="0.00" departDelay="0.00" arrival="232.00" arrivalLane="C_to_N_1" arrivalPos="489.60" arrivalSpeed="12.45" duration="177.00" routeLength="994.90" waitingTime="88.00" waitingCount="1" stopTime="0.00" timeLoss="102.99" rerouteNo="0" devices="tripinfo_flow_sn_sedan.3" vType="car_sedan" speedFactor="0.97" vaporized=""/>
    <tripinfo id="flow_we_hatchback.2" depart="30.00" departLane="W_to_C_0" departPos="4.60" departSpeed="0.00" departDelay="0.00" arrival="234.00" arrivalLane="C_to_E_0" arrivalPos="489.60" arrivalSpeed="15.02" duration="204.00" routeLength="995.40" waitingTime="130.00" waitingCount="1" stopTime="0.00" timeLoss="141.85" rerouteNo="0" devices="tripinfo_flow_we_hatchback.2" vType="car_hatchback" speedFactor="1.16" vaporized=""/>
    <tripinfo id="flow_sn_sedan.5" depart="64.00" departLane="S_to_C_0" departPos="5.10" departSpeed="0.00" departDelay="1.00" arrival="234.00" arrivalLane="C_to_N_1" arrivalPos="489.60" arrivalSpeed="12.22" duration="170.00" routeLength="994.90" waitingTime="80.00" waitingCount="1" stopTime="0.00" timeLoss="94.65" rerouteNo="0" devices="tripinfo_flow_sn_sedan.5" vType="car_sedan" speedFactor="0.96" vaporized=""/>
    <tripinfo id="flow_sn_sedan.8" depart="90.00" departLane="S_to_C_0" departPos="5.10" departSpeed="0.00" departDelay="0.00" arrival="236.00" arrivalLane="C_to_N_0" arrivalPos="489.60" arrivalSpeed="14.68" duration="146.00" routeLength="994.90" waitingTime="61.00" waitingCount="1" stopTime="0.00" timeLoss="79.69" rerouteNo="0" devices="tripinfo_flow_sn_sedan.8" vType="car_sedan" speedFactor="1.10" vaporized=""/>
    <tripinfo id="flow_sn_sedan.4" depart="61.00" departLane="S_to_C_0" departPos="5.10" departSpeed="0.00" departDelay="0.00" arrival="237.00" arrivalLane="C_to_N_0" arrivalPos="489.60" arrivalSpeed="12.03" duration="176.00" routeLength="994.90" waitingTime="79.00" waitingCount="1" stopTime="0.00" timeLoss="95.86" rerouteNo="0" devices="tripinfo_flow_sn_sedan.4" vType="car_sedan" speedFactor="0.90" vaporized=""/>
    <tripinfo id="flow_we_truck.0" depart="19.00" departLane="W_to_C_0" departPos="12.10" departSpeed="0.00" departDelay="0.00" arrival="240.00" arrivalLane="C_to_E_0" arrivalPos="489.60" arrivalSpeed="14.12" duration="221.00" routeLength="987.90" waitingTime="136.00" waitingCount="1" stopTime="0.00" timeLoss="151.38" rerouteNo="0" devices="tripinfo_flow_we_truck.0" vType="truck" speedFactor="1.03" vaporized=""/>
    <tripinfo id="flow_we_hatchback.1" depart="25.00" departLane="W_to_C_0" departPos="4.60" departSpeed="0.00" departDelay="0.00" arrival="241.00" arrivalLane="C_to_E_0" arrivalPos="489.60" arrivalSpeed="13.53" duration="216.00" routeLength="995.40" waitingTime="129.00" waitingCount="1" stopTime="0.00" timeLoss="143.40" rerouteNo="0" devices="tripinfo_flow_we_hatchback.1" vType="car_hatchback" speedFactor="0.99" vaporized=""/>
    <tripinfo id="flow_sn_sedan.6" depart="84.00" departLane="S_to_C_0" departPos="5.10" departSpeed="0.00" departDelay="0.00" arrival="241.00" arrivalLane="C_to_N_0" arrivalPos="489.60" arrivalSpeed="10.82" duration="157.00" routeLength="994.90" waitingTime="55.00" waitingCount="1" stopTime="0.00" timeLoss="72.22" rerouteNo="0" devices="tripinfo_flow_sn_sedan.6" vType="car_sedan" speedFactor="0.85" vaporized=""/>
    <tripinfo id="flow_we_sedan.2" depart="33.00" departLane="W_to_C_0" departPos="5.10" departSpeed="0.00" departDelay="2.00" arrival="243.00" arrivalLane="C_to_E_1" arrivalPos="489.60" arrivalSpeed="13.56" duration="210.00" routeLength="994.90" waitingTime="123.00" waitingCount="2" stopTime="0.00" timeLoss="139.00" rerouteNo="0" devices="tripinfo_flow_we_sedan.2" vType="car_sedan" speedFactor="1.02" vaporized=""/>
    <tripinfo id="flow_we_sedan.4" depart="49.00" departLane="W_to_C_0" departPos="5.10" departSpeed="0.00" departDelay="0.00" arrival="244.00" arrivalLane="C_to_E_1" arrivalPos="489.60" arrivalSpeed="15.45" duration="195.00" routeLength="994.90" waitingTime="114.00" waitingCount="2" stopTime="0.00" timeLoss="133.80" rerouteNo="0" devices="tripinfo_flow_we_sedan.4" vType="car_sedan" speedFactor="1.17" vaporized=""/>
    <tripinfo id="flow_we_sedan.3" depart="36.00" departLane="W_to_C_0" departPos="5.10" departSpeed="0.00" departDelay="2.00" arrival="245.00" arrivalLane="C_to_E_0" arrivalPos="489.60" arrivalSpeed="13.10" duration="209.00" routeLength="994.90" waitingTime="120.00" waitingCount="1" stopTime="0.00" timeLoss="134.91" rerouteNo="0" devices="tripinfo_flow_we_sedan.3" vType="car_sedan" speedFactor="0.97" vaporized=""/>
    <tripinfo id="flow_we_sedan.5" depart="52.00" departLane="W_to_C_0" departPos="5.10" departSpeed="0.00" departDelay="2.00" arrival="247.00" arrivalLane="C_to_E_0" arrivalPos="489.60" arrivalSpeed="12.99" duration="195.00" routeLength="994.90" waitingTime="107.00" waitingCount="1" stopTime="0.00" timeLoss="122.09" rerouteNo="0" devices="tripinfo_flow_we_sedan.5" vType="car_sedan" speedFactor="0.99" vaporized=""/>
    <tripinfo id="flow_we_hatchback.3" depart="78.00" departLane="W_to_C_0" departPos="4.60" departSpeed="0.00" departDelay="3.00" arrival="247.00" arrivalLane="C_to_E_1" arrivalPos="489.60" arrivalSpeed="12.89" duration="169.00" routeLength="995.40" waitingTime="83.00" waitingCount="1" stopTime="0.00" timeLoss="96.26" rerouteNo="0" devices="tripinfo_flow_we_hatchback.3" vType="car_hatchback" speedFactor="1.00" vaporized=""/>
    <tripinfo id="flow_we_sedan.6" depart="95.00" departLane="W_to_C_0" departPos="5.10" departSpeed="0.00" departDelay="0.00" arrival="248.00" arrivalLane="C_to_E_1" arrivalPos="489.60" arrivalSpeed="12.94" duration="153.00" routeLength="994.90" waitingTime="66.00" waitingCount="1" stopTime="0.00" timeLoss="81.05" rerouteNo="0" devices="tripinfo_flow_we_sedan.6" vType="car_sedan" speedFactor="1.00" vaporized=""/>
    <tripinfo id="flow_we_truck.1" depart="74.00" departLane="W_to_C_0" departPos="12.10" departSpeed="0.00" departDelay="0.00" arrival="249.00" arrivalLane="C_to_E_0" arrivalPos="489.60" arrivalSpeed="14.39" duration="175.00" routeLength="987.90" waitingTime="85.00" waitingCount="1" stopTime="0.00" timeLoss="106.18" rerouteNo="0" devices="tripinfo_flow_we_truck.1" vType="truck" speedFactor="1.04" vaporized=""/>
    <tripinfo id="flow_ns_hatchback.7" depart="74.00" departLane="N_to_C_0" departPos="4.60" departSpeed="0.00" departDelay="0.00" arrival="252.00" arrivalLane="C_to_S_0" arrivalPos="489.60" arrivalSpeed="13.77" duration="178.00" routeLength="995.40" waitingTime="95.00" waitingCount="1" stopTime="0.00" timeLoss="108.90" rerouteNo="0" devices="tripinfo_flow_ns_hatchback.7" vType="car_hatchback" speedFactor="1.04" vaporized=""/>
    <tripinfo id="flow_ns_sedan.8" depart="77.00" departLane="N_to_C_0" departPos="5.10" departSpeed="0.00" departDelay="2.00" arrival="252.00" arrivalLane="C_to_S_1" arrivalPos="489.60" arrivalSpeed="14.25" duration="175.00" routeLength="994.90" waitingTime="94.00" waitingCount="1" stopTime="0.00" timeLoss="108.46" rerouteNo="0" devices="tripinfo_flow_ns_sedan.8" vType="car_sedan" speedFactor="1.09" vaporized=""/>
    <tripinfo id="flow_ns_sedan.10" depart="89.00" departLane="N_to_C_0" departPos="5.10" departSpeed="0.00" departDelay="0.00" arrival="253.00" arrivalLane="C_to_S_1" arrivalPos="489.60" arrivalSpeed="15.97" duration="164.00" routeLength="994.90" waitingTime="87.00" waitingCount="1" stopTime="0.00" timeLoss="102.64" rerouteNo="0" devices="tripinfo_flow_ns_sedan.10" vType="car_sedan" speedFactor="1.17" vaporized=""/>
    <tripinfo id="flow_ns_hatchback.9" depart="109.00" departLane="N_to_C_0" departPos="4.60" departSpeed="0.00" departDelay="0.00" arrival="260.00" arrivalLane="C_to_S_1" arrivalPos="489.60" arrivalSpeed="13.00" duration="151.00" routeLength="995.40" waitingTime="63.00" waitingCount="1" stopTime="0.00" timeLoss="74.43" rerouteNo="0" devices="tripinfo_flow_ns_hatchback.9" vType="car_hatchback" speedFactor="0.94" vaporized=""/>
    <tripinfo id="flow_ns_sedan.9" depart="84.00" departLane="N_to_C_0" departPos="5.10" departSpeed="0.00" departDelay="0.00" arrival="262.00" arrivalLane="C_to_S_0" arrivalPos="489.60" arrivalSpeed="11.97" duration="178.00" routeLength="994.90" waitingTime="82.00" waitingCount="1" stopTime="0.00" timeLoss="95.42" rerouteNo="0" devices="tripinfo_flow_ns_sedan.9" vType="car_sedan" speedFactor="0.88" vaporized=""/>
    <tripinfo id="flow_ns_hatchback.8" depart="92.00" departLane="N_to_C_0" departPos="4.60" departSpeed="0.00" departDelay="0.00" arrival="263.00" arrivalLane="C_to_S_0" arrivalPos="489.60" arrivalSpeed="13.59" duration="171.00" routeLength="995.40" waitingTime="81.00" waitingCount="1" stopTime="0.00" timeLoss="99.35" rerouteNo="0" devices="tripinfo_flow_ns_hatchback.8" vType="car_hatchback" speedFactor="1.00" vaporized=""/>
    <tripinfo id="flow_ns_hatchback.10" depart="116.00" departLane="N_to_C_0" departPos="4.60" departSpeed="0.00" departDelay="1.00" arrival="264.00" arrivalLane="C_to_S_1" arrivalPos="489.60" arrivalSpeed="12.26" duration="148.00" routeLength="995.40" waitingTime="55.00" waitingCount="1" stopTime="0.00" timeLoss="68.30" rerouteNo="0" devices="tripinfo_flow_ns_hatchback.10" vType="car_hatchback" speedFactor="0.91" vaporized=""/>
    <tripinfo id="flow_ns_sedan.11" depart="113.00" departLane="N_to_C_0" departPos="5.10" departSpeed="0.00" departDelay="0.00" arrival="265.00" arrivalLane="C_to_S_0" arrivalPos="489.60" arrivalSpeed="12.10" duration="152.00" routeLength="994.90" waitingTime="57.00" waitingCount="1" stopTime="0.00" timeLoss="70.50" rerouteNo="0" devices="tripinfo_flow_ns_sedan.11" vType="car_sedan" speedFactor="0.88" vaporized=""/>
    <tripinfo id="flow_ns_sedan.12" depart="130.00" departLane="N_to_C_0" departPos="5.10" departSpeed="0.00" departDelay="0.00" arrival="266.00" arrivalLane="C_to_S_1" arrivalPos="489.60" arrivalSpeed="12.55" duration="136.00" routeLength="994.90" waitingTime="45.00" waitingCount="1" stopTime="0.00" timeLoss="62.39" rerouteNo="0" devices="tripinfo_flow_ns_sedan.12" vType="car_sedan" speedFactor="0.98" vaporized=""/>